    1C
    1UUSER                                                              
    1UDATE              14.january.2014                                 
    1UTIME              19:56:54                                        
    1UHOST                                                              
    1UPGM               CalculiX                                        
    1UDIR                                                               
    1UDBN                                                               
    2C                          1819                                     1
 -1         1 5.50000E-02 1.50000E-02 0.00000E+00
 -1         2 5.50000E-02 1.50000E-02 2.00000E-02
 -1         3-2.00000E-02 1.50000E-02 2.00000E-02
 -1         4-2.00000E-02 1.50000E-02 0.00000E+00
 -1         5 5.50000E-02 4.00000E-02 2.00000E-02
 -1         6-2.00000E-02 4.00000E-02 2.00000E-02
 -1         7-2.00000E-02 4.00000E-02 0.00000E+00
 -1         8 5.50000E-02 4.00000E-02 0.00000E+00
 -1         9 5.50000E-02-1.00000E-02 0.00000E+00
 -1        10 5.50000E-02-1.00000E-02 2.00000E-02
 -1        11-2.00000E-02-1.00000E-02 2.00000E-02
 -1        12-2.00000E-02-1.00000E-02 0.00000E+00
 -1        13 8.00000E-02 3.00000E-02 2.00000E-02
 -1        14 8.00000E-02 3.00000E-02 0.00000E+00
 -1        15 9.50000E-02 1.50000E-02 0.00000E+00
 -1        16 9.50000E-02 1.50000E-02 2.00000E-02
 -1        17 8.00000E-02 4.00000E-02 0.00000E+00
 -1        18 1.05000E-01 1.50000E-02 0.00000E+00
 -1        19 1.05000E-01 1.50000E-02 2.00000E-02
 -1        20 8.00000E-02 4.00000E-02 2.00000E-02
 -1        21 8.00000E-02 0.00000E+00 0.00000E+00
 -1        22 8.00000E-02 0.00000E+00 2.00000E-02
 -1        23 8.00000E-02-1.00000E-02 2.00000E-02
 -1        24 8.00000E-02-1.00000E-02 0.00000E+00
 -1        25 6.50000E-02 1.50000E-02 0.00000E+00
 -1        26 6.50000E-02 1.50000E-02 2.00000E-02
 -1        27 5.50000E-02 1.50000E-02 6.66667E-03
 -1        28 5.50000E-02 1.50000E-02 1.33333E-02
 -1        29 4.81818E-02 1.50000E-02 2.00000E-02
 -1        30 4.13636E-02 1.50000E-02 2.00000E-02
 -1        31 3.45455E-02 1.50000E-02 2.00000E-02
 -1        32 2.77273E-02 1.50000E-02 2.00000E-02
 -1        33 2.09091E-02 1.50000E-02 2.00000E-02
 -1        34 1.40909E-02 1.50000E-02 2.00000E-02
 -1        35 7.27273E-03 1.50000E-02 2.00000E-02
 -1        36 4.54545E-04 1.50000E-02 2.00000E-02
 -1        37-6.36364E-03 1.50000E-02 2.00000E-02
 -1        38-1.31818E-02 1.50000E-02 2.00000E-02
 -1        39-2.00000E-02 1.50000E-02 1.33333E-02
 -1        40-2.00000E-02 1.50000E-02 6.66667E-03
 -1        41-1.31818E-02 1.50000E-02 0.00000E+00
 -1        42-6.36364E-03 1.50000E-02 0.00000E+00
 -1        43 4.54545E-04 1.50000E-02 0.00000E+00
 -1        44 7.27273E-03 1.50000E-02 0.00000E+00
 -1        45 1.40909E-02 1.50000E-02 0.00000E+00
 -1        46 2.09091E-02 1.50000E-02 0.00000E+00
 -1        47 2.77273E-02 1.50000E-02 0.00000E+00
 -1        48 3.45455E-02 1.50000E-02 0.00000E+00
 -1        49 4.13636E-02 1.50000E-02 0.00000E+00
 -1        50 4.81818E-02 1.50000E-02 0.00000E+00
 -1        51 5.50000E-02 4.00000E-02 1.33333E-02
 -1        52 5.50000E-02 4.00000E-02 6.66667E-03
 -1        53-1.31818E-02 4.00000E-02 2.00000E-02
 -1        54-6.36364E-03 4.00000E-02 2.00000E-02
 -1        55 4.54545E-04 4.00000E-02 2.00000E-02
 -1        56 7.27273E-03 4.00000E-02 2.00000E-02
 -1        57 1.40909E-02 4.00000E-02 2.00000E-02
 -1        58 2.09091E-02 4.00000E-02 2.00000E-02
 -1        59 2.77273E-02 4.00000E-02 2.00000E-02
 -1        60 3.45455E-02 4.00000E-02 2.00000E-02
 -1        61 4.13636E-02 4.00000E-02 2.00000E-02
 -1        62 4.81818E-02 4.00000E-02 2.00000E-02
 -1        63-2.00000E-02 4.00000E-02 6.66667E-03
 -1        64-2.00000E-02 4.00000E-02 1.33333E-02
 -1        65 4.81818E-02 4.00000E-02 0.00000E+00
 -1        66 4.13636E-02 4.00000E-02 0.00000E+00
 -1        67 3.45455E-02 4.00000E-02 0.00000E+00
 -1        68 2.77273E-02 4.00000E-02 0.00000E+00
 -1        69 2.09091E-02 4.00000E-02 0.00000E+00
 -1        70 1.40909E-02 4.00000E-02 0.00000E+00
 -1        71 7.27273E-03 4.00000E-02 0.00000E+00
 -1        72 4.54545E-04 4.00000E-02 0.00000E+00
 -1        73-6.36364E-03 4.00000E-02 0.00000E+00
 -1        74-1.31818E-02 4.00000E-02 0.00000E+00
 -1        75-2.00000E-02 2.33333E-02 0.00000E+00
 -1        76-2.00000E-02 3.16667E-02 0.00000E+00
 -1        77 5.50000E-02 3.16667E-02 0.00000E+00
 -1        78 5.50000E-02 2.33333E-02 0.00000E+00
 -1        79-2.00000E-02 3.16667E-02 2.00000E-02
 -1        80-2.00000E-02 2.33333E-02 2.00000E-02
 -1        81 5.50000E-02 2.33333E-02 2.00000E-02
 -1        82 5.50000E-02 3.16667E-02 2.00000E-02
 -1        83 5.50000E-02-1.00000E-02 6.66667E-03
 -1        84 5.50000E-02-1.00000E-02 1.33333E-02
 -1        85 4.81818E-02-1.00000E-02 2.00000E-02
 -1        86 4.13636E-02-1.00000E-02 2.00000E-02
 -1        87 3.45455E-02-1.00000E-02 2.00000E-02
 -1        88 2.77273E-02-1.00000E-02 2.00000E-02
 -1        89 2.09091E-02-1.00000E-02 2.00000E-02
 -1        90 1.40909E-02-1.00000E-02 2.00000E-02
 -1        91 7.27273E-03-1.00000E-02 2.00000E-02
 -1        92 4.54545E-04-1.00000E-02 2.00000E-02
 -1        93-6.36364E-03-1.00000E-02 2.00000E-02
 -1        94-1.31818E-02-1.00000E-02 2.00000E-02
 -1        95-2.00000E-02-1.00000E-02 1.33333E-02
 -1        96-2.00000E-02-1.00000E-02 6.66667E-03
 -1        97-1.31818E-02-1.00000E-02 0.00000E+00
 -1        98-6.36364E-03-1.00000E-02 0.00000E+00
 -1        99 4.54545E-04-1.00000E-02 0.00000E+00
 -1       100 7.27273E-03-1.00000E-02 0.00000E+00
 -1       101 1.40909E-02-1.00000E-02 0.00000E+00
 -1       102 2.09091E-02-1.00000E-02 0.00000E+00
 -1       103 2.77273E-02-1.00000E-02 0.00000E+00
 -1       104 3.45455E-02-1.00000E-02 0.00000E+00
 -1       105 4.13636E-02-1.00000E-02 0.00000E+00
 -1       106 4.81818E-02-1.00000E-02 0.00000E+00
 -1       107-2.00000E-02-1.66667E-03 0.00000E+00
 -1       108-2.00000E-02 6.66667E-03 0.00000E+00
 -1       109 5.50000E-02 6.66667E-03 0.00000E+00
 -1       110 5.50000E-02-1.66667E-03 0.00000E+00
 -1       111-2.00000E-02 6.66667E-03 2.00000E-02
 -1       112-2.00000E-02-1.66667E-03 2.00000E-02
 -1       113 5.50000E-02-1.66667E-03 2.00000E-02
 -1       114 5.50000E-02 6.66667E-03 2.00000E-02
 -1       115 8.00000E-02 3.00000E-02 1.33333E-02
 -1       116 8.00000E-02 3.00000E-02 6.66667E-03
 -1       117 8.57403E-02 2.88582E-02 0.00000E+00
 -1       118 9.06066E-02 2.56066E-02 0.00000E+00
 -1       119 9.38582E-02 2.07403E-02 0.00000E+00
 -1       120 9.50000E-02 1.50000E-02 6.66667E-03
 -1       121 9.50000E-02 1.50000E-02 1.33333E-02
 -1       122 9.38582E-02 2.07403E-02 2.00000E-02
 -1       123 9.06066E-02 2.56066E-02 2.00000E-02
 -1       124 8.57403E-02 2.88582E-02 2.00000E-02
 -1       125 8.00000E-02 4.00000E-02 6.66667E-03
 -1       126 8.00000E-02 4.00000E-02 1.33333E-02
 -1       127 1.03097E-01 2.45671E-02 0.00000E+00
 -1       128 9.76777E-02 3.26777E-02 0.00000E+00
 -1       129 8.95671E-02 3.80970E-02 0.00000E+00
 -1       130 1.05000E-01 1.50000E-02 1.33333E-02
 -1       131 1.05000E-01 1.50000E-02 6.66667E-03
 -1       132 8.95671E-02 3.80970E-02 2.00000E-02
 -1       133 9.76777E-02 3.26777E-02 2.00000E-02
 -1       134 1.03097E-01 2.45671E-02 2.00000E-02
 -1       135 1.00000E-01 1.50000E-02 2.00000E-02
 -1       136 8.00000E-02 3.50000E-02 2.00000E-02
 -1       137 1.00000E-01 1.50000E-02 0.00000E+00
 -1       138 8.00000E-02 3.50000E-02 0.00000E+00
 -1       139 8.00000E-02 0.00000E+00 6.66667E-03
 -1       140 8.00000E-02 0.00000E+00 1.33333E-02
 -1       141 8.57403E-02 1.14181E-03 2.00000E-02
 -1       142 9.06066E-02 4.39340E-03 2.00000E-02
 -1       143 9.38582E-02 9.25975E-03 2.00000E-02
 -1       144 9.38582E-02 9.25975E-03 0.00000E+00
 -1       145 9.06066E-02 4.39340E-03 0.00000E+00
 -1       146 8.57403E-02 1.14181E-03 0.00000E+00
 -1       147 8.00000E-02-1.00000E-02 1.33333E-02
 -1       148 8.00000E-02-1.00000E-02 6.66667E-03
 -1       149 1.03097E-01 5.43291E-03 2.00000E-02
 -1       150 9.76777E-02-2.67767E-03 2.00000E-02
 -1       151 8.95671E-02-8.09699E-03 2.00000E-02
 -1       152 8.95671E-02-8.09699E-03 0.00000E+00
 -1       153 9.76777E-02-2.67767E-03 0.00000E+00
 -1       154 1.03097E-01 5.43291E-03 0.00000E+00
 -1       155 8.00000E-02-5.00000E-03 0.00000E+00
 -1       156 8.00000E-02-5.00000E-03 2.00000E-02
 -1       157 6.00000E-02 1.50000E-02 2.00000E-02
 -1       158 6.00000E-02 1.50000E-02 0.00000E+00
 -1       159 6.50000E-02 1.50000E-02 6.66667E-03
 -1       160 6.50000E-02 1.50000E-02 1.33333E-02
 -1       161 6.61418E-02 9.25975E-03 0.00000E+00
 -1       162 6.93934E-02 4.39340E-03 0.00000E+00
 -1       163 7.42598E-02 1.14181E-03 0.00000E+00
 -1       164 6.61418E-02 9.25975E-03 2.00000E-02
 -1       165 6.93934E-02 4.39340E-03 2.00000E-02
 -1       166 7.42598E-02 1.14181E-03 2.00000E-02
 -1       167 6.33333E-02-1.00000E-02 2.00000E-02
 -1       168 7.16667E-02-1.00000E-02 2.00000E-02
 -1       169 6.33333E-02-1.00000E-02 0.00000E+00
 -1       170 7.16667E-02-1.00000E-02 0.00000E+00
 -1       171 6.61418E-02 2.07403E-02 0.00000E+00
 -1       172 6.93934E-02 2.56066E-02 0.00000E+00
 -1       173 7.42598E-02 2.88582E-02 0.00000E+00
 -1       174 6.61418E-02 2.07403E-02 2.00000E-02
 -1       175 6.93934E-02 2.56066E-02 2.00000E-02
 -1       176 7.42598E-02 2.88582E-02 2.00000E-02
 -1       177 6.33333E-02 4.00000E-02 0.00000E+00
 -1       178 7.16667E-02 4.00000E-02 0.00000E+00
 -1       179 6.33333E-02 4.00000E-02 2.00000E-02
 -1       180 7.16667E-02 4.00000E-02 2.00000E-02
 -1       181 4.81818E-02 1.50000E-02 6.66667E-03
 -1       182 4.81818E-02 1.50000E-02 1.33333E-02
 -1       183 4.13636E-02 1.50000E-02 6.66667E-03
 -1       184 4.13636E-02 1.50000E-02 1.33333E-02
 -1       185 3.45455E-02 1.50000E-02 6.66667E-03
 -1       186 3.45455E-02 1.50000E-02 1.33333E-02
 -1       187 2.77273E-02 1.50000E-02 6.66667E-03
 -1       188 2.77273E-02 1.50000E-02 1.33333E-02
 -1       189 2.09091E-02 1.50000E-02 6.66667E-03
 -1       190 2.09091E-02 1.50000E-02 1.33333E-02
 -1       191 1.40909E-02 1.50000E-02 6.66667E-03
 -1       192 1.40909E-02 1.50000E-02 1.33333E-02
 -1       193 7.27273E-03 1.50000E-02 6.66667E-03
 -1       194 7.27273E-03 1.50000E-02 1.33333E-02
 -1       195 4.54545E-04 1.50000E-02 6.66667E-03
 -1       196 4.54545E-04 1.50000E-02 1.33333E-02
 -1       197-6.36364E-03 1.50000E-02 6.66667E-03
 -1       198-6.36364E-03 1.50000E-02 1.33333E-02
 -1       199-1.31818E-02 1.50000E-02 6.66667E-03
 -1       200-1.31818E-02 1.50000E-02 1.33333E-02
 -1       201 4.81818E-02 4.00000E-02 6.66667E-03
 -1       202 4.81818E-02 4.00000E-02 1.33333E-02
 -1       203 4.13636E-02 4.00000E-02 6.66667E-03
 -1       204 4.13636E-02 4.00000E-02 1.33333E-02
 -1       205 3.45455E-02 4.00000E-02 6.66667E-03
 -1       206 3.45455E-02 4.00000E-02 1.33333E-02
 -1       207 2.77273E-02 4.00000E-02 6.66667E-03
 -1       208 2.77273E-02 4.00000E-02 1.33333E-02
 -1       209 2.09091E-02 4.00000E-02 6.66667E-03
 -1       210 2.09091E-02 4.00000E-02 1.33333E-02
 -1       211 1.40909E-02 4.00000E-02 6.66667E-03
 -1       212 1.40909E-02 4.00000E-02 1.33333E-02
 -1       213 7.27273E-03 4.00000E-02 6.66667E-03
 -1       214 7.27273E-03 4.00000E-02 1.33333E-02
 -1       215 4.54545E-04 4.00000E-02 6.66667E-03
 -1       216 4.54545E-04 4.00000E-02 1.33333E-02
 -1       217-6.36364E-03 4.00000E-02 6.66667E-03
 -1       218-6.36364E-03 4.00000E-02 1.33333E-02
 -1       219-1.31818E-02 4.00000E-02 6.66667E-03
 -1       220-1.31818E-02 4.00000E-02 1.33333E-02
 -1       221 4.81818E-02 2.33333E-02 0.00000E+00
 -1       222 4.13636E-02 2.33333E-02 0.00000E+00
 -1       223 3.45455E-02 2.33333E-02 0.00000E+00
 -1       224 2.77273E-02 2.33333E-02 0.00000E+00
 -1       225 2.09091E-02 2.33333E-02 0.00000E+00
 -1       226 1.40909E-02 2.33333E-02 0.00000E+00
 -1       227 7.27273E-03 2.33333E-02 0.00000E+00
 -1       228 4.54545E-04 2.33333E-02 0.00000E+00
 -1       229-6.36364E-03 2.33333E-02 0.00000E+00
 -1       230-1.31818E-02 2.33333E-02 0.00000E+00
 -1       231 4.81818E-02 3.16667E-02 0.00000E+00
 -1       232 4.13636E-02 3.16667E-02 0.00000E+00
 -1       233 3.45455E-02 3.16667E-02 0.00000E+00
 -1       234 2.77273E-02 3.16667E-02 0.00000E+00
 -1       235 2.09091E-02 3.16667E-02 0.00000E+00
 -1       236 1.40909E-02 3.16667E-02 0.00000E+00
 -1       237 7.27273E-03 3.16667E-02 0.00000E+00
 -1       238 4.54545E-04 3.16667E-02 0.00000E+00
 -1       239-6.36364E-03 3.16667E-02 0.00000E+00
 -1       240-1.31818E-02 3.16667E-02 0.00000E+00
 -1       241 4.81818E-02 2.33333E-02 2.00000E-02
 -1       242 4.13636E-02 2.33333E-02 2.00000E-02
 -1       243 3.45455E-02 2.33333E-02 2.00000E-02
 -1       244 2.77273E-02 2.33333E-02 2.00000E-02
 -1       245 2.09091E-02 2.33333E-02 2.00000E-02
 -1       246 1.40909E-02 2.33333E-02 2.00000E-02
 -1       247 7.27273E-03 2.33333E-02 2.00000E-02
 -1       248 4.54545E-04 2.33333E-02 2.00000E-02
 -1       249-6.36364E-03 2.33333E-02 2.00000E-02
 -1       250-1.31818E-02 2.33333E-02 2.00000E-02
 -1       251 4.81818E-02 3.16667E-02 2.00000E-02
 -1       252 4.13636E-02 3.16667E-02 2.00000E-02
 -1       253 3.45455E-02 3.16667E-02 2.00000E-02
 -1       254 2.77273E-02 3.16667E-02 2.00000E-02
 -1       255 2.09091E-02 3.16667E-02 2.00000E-02
 -1       256 1.40909E-02 3.16667E-02 2.00000E-02
 -1       257 7.27273E-03 3.16667E-02 2.00000E-02
 -1       258 4.54545E-04 3.16667E-02 2.00000E-02
 -1       259-6.36364E-03 3.16667E-02 2.00000E-02
 -1       260-1.31818E-02 3.16667E-02 2.00000E-02
 -1       261 5.50000E-02 2.33333E-02 6.66667E-03
 -1       262 5.50000E-02 2.33333E-02 1.33333E-02
 -1       263 5.50000E-02 3.16667E-02 6.66667E-03
 -1       264 5.50000E-02 3.16667E-02 1.33333E-02
 -1       265-2.00000E-02 2.33333E-02 6.66667E-03
 -1       266-2.00000E-02 2.33333E-02 1.33333E-02
 -1       267-2.00000E-02 3.16667E-02 6.66667E-03
 -1       268-2.00000E-02 3.16667E-02 1.33333E-02
 -1       269 4.81818E-02-1.00000E-02 6.66667E-03
 -1       270 4.81818E-02-1.00000E-02 1.33333E-02
 -1       271 4.13636E-02-1.00000E-02 6.66667E-03
 -1       272 4.13636E-02-1.00000E-02 1.33333E-02
 -1       273 3.45455E-02-1.00000E-02 6.66667E-03
 -1       274 3.45455E-02-1.00000E-02 1.33333E-02
 -1       275 2.77273E-02-1.00000E-02 6.66667E-03
 -1       276 2.77273E-02-1.00000E-02 1.33333E-02
 -1       277 2.09091E-02-1.00000E-02 6.66667E-03
 -1       278 2.09091E-02-1.00000E-02 1.33333E-02
 -1       279 1.40909E-02-1.00000E-02 6.66667E-03
 -1       280 1.40909E-02-1.00000E-02 1.33333E-02
 -1       281 7.27273E-03-1.00000E-02 6.66667E-03
 -1       282 7.27273E-03-1.00000E-02 1.33333E-02
 -1       283 4.54545E-04-1.00000E-02 6.66667E-03
 -1       284 4.54545E-04-1.00000E-02 1.33333E-02
 -1       285-6.36364E-03-1.00000E-02 6.66667E-03
 -1       286-6.36364E-03-1.00000E-02 1.33333E-02
 -1       287-1.31818E-02-1.00000E-02 6.66667E-03
 -1       288-1.31818E-02-1.00000E-02 1.33333E-02
 -1       289 4.81818E-02 6.66667E-03 0.00000E+00
 -1       290 4.13636E-02 6.66667E-03 0.00000E+00
 -1       291 3.45455E-02 6.66667E-03 0.00000E+00
 -1       292 2.77273E-02 6.66667E-03 0.00000E+00
 -1       293 2.09091E-02 6.66667E-03 0.00000E+00
 -1       294 1.40909E-02 6.66667E-03 0.00000E+00
 -1       295 7.27273E-03 6.66667E-03 0.00000E+00
 -1       296 4.54545E-04 6.66667E-03 0.00000E+00
 -1       297-6.36364E-03 6.66667E-03 0.00000E+00
 -1       298-1.31818E-02 6.66667E-03 0.00000E+00
 -1       299 4.81818E-02-1.66667E-03 0.00000E+00
 -1       300 4.13636E-02-1.66667E-03 0.00000E+00
 -1       301 3.45455E-02-1.66667E-03 0.00000E+00
 -1       302 2.77273E-02-1.66667E-03 0.00000E+00
 -1       303 2.09091E-02-1.66667E-03 0.00000E+00
 -1       304 1.40909E-02-1.66667E-03 0.00000E+00
 -1       305 7.27273E-03-1.66667E-03 0.00000E+00
 -1       306 4.54545E-04-1.66667E-03 0.00000E+00
 -1       307-6.36364E-03-1.66667E-03 0.00000E+00
 -1       308-1.31818E-02-1.66667E-03 0.00000E+00
 -1       309 4.81818E-02 6.66667E-03 2.00000E-02
 -1       310 4.13636E-02 6.66667E-03 2.00000E-02
 -1       311 3.45455E-02 6.66667E-03 2.00000E-02
 -1       312 2.77273E-02 6.66667E-03 2.00000E-02
 -1       313 2.09091E-02 6.66667E-03 2.00000E-02
 -1       314 1.40909E-02 6.66667E-03 2.00000E-02
 -1       315 7.27273E-03 6.66667E-03 2.00000E-02
 -1       316 4.54545E-04 6.66667E-03 2.00000E-02
 -1       317-6.36364E-03 6.66667E-03 2.00000E-02
 -1       318-1.31818E-02 6.66667E-03 2.00000E-02
 -1       319 4.81818E-02-1.66667E-03 2.00000E-02
 -1       320 4.13636E-02-1.66667E-03 2.00000E-02
 -1       321 3.45455E-02-1.66667E-03 2.00000E-02
 -1       322 2.77273E-02-1.66667E-03 2.00000E-02
 -1       323 2.09091E-02-1.66667E-03 2.00000E-02
 -1       324 1.40909E-02-1.66667E-03 2.00000E-02
 -1       325 7.27273E-03-1.66667E-03 2.00000E-02
 -1       326 4.54545E-04-1.66667E-03 2.00000E-02
 -1       327-6.36364E-03-1.66667E-03 2.00000E-02
 -1       328-1.31818E-02-1.66667E-03 2.00000E-02
 -1       329 5.50000E-02 6.66667E-03 6.66667E-03
 -1       330 5.50000E-02 6.66667E-03 1.33333E-02
 -1       331 5.50000E-02-1.66667E-03 6.66667E-03
 -1       332 5.50000E-02-1.66667E-03 1.33333E-02
 -1       333-2.00000E-02 6.66667E-03 6.66667E-03
 -1       334-2.00000E-02 6.66667E-03 1.33333E-02
 -1       335-2.00000E-02-1.66667E-03 6.66667E-03
 -1       336-2.00000E-02-1.66667E-03 1.33333E-02
 -1       337 8.57403E-02 2.88582E-02 1.33333E-02
 -1       338 8.57403E-02 2.88582E-02 6.66667E-03
 -1       339 9.06066E-02 2.56066E-02 1.33333E-02
 -1       340 9.06066E-02 2.56066E-02 6.66667E-03
 -1       341 9.38582E-02 2.07403E-02 1.33333E-02
 -1       342 9.38582E-02 2.07403E-02 6.66667E-03
 -1       343 8.95671E-02 3.80970E-02 1.33333E-02
 -1       344 8.95671E-02 3.80970E-02 6.66667E-03
 -1       345 9.76777E-02 3.26777E-02 1.33333E-02
 -1       346 9.76777E-02 3.26777E-02 6.66667E-03
 -1       347 1.03097E-01 2.45671E-02 1.33333E-02
 -1       348 1.03097E-01 2.45671E-02 6.66667E-03
 -1       349 8.76537E-02 3.34776E-02 2.00000E-02
 -1       350 9.41421E-02 2.91421E-02 2.00000E-02
 -1       351 9.84776E-02 2.26537E-02 2.00000E-02
 -1       352 8.76537E-02 3.34776E-02 0.00000E+00
 -1       353 9.41421E-02 2.91421E-02 0.00000E+00
 -1       354 9.84776E-02 2.26537E-02 0.00000E+00
 -1       355 8.00000E-02 3.50000E-02 1.33333E-02
 -1       356 8.00000E-02 3.50000E-02 6.66667E-03
 -1       357 1.00000E-01 1.50000E-02 1.33333E-02
 -1       358 1.00000E-01 1.50000E-02 6.66667E-03
 -1       359 8.57403E-02 1.14181E-03 6.66667E-03
 -1       360 8.57403E-02 1.14181E-03 1.33333E-02
 -1       361 9.06066E-02 4.39340E-03 6.66667E-03
 -1       362 9.06066E-02 4.39340E-03 1.33333E-02
 -1       363 9.38582E-02 9.25975E-03 6.66667E-03
 -1       364 9.38582E-02 9.25975E-03 1.33333E-02
 -1       365 8.95671E-02-8.09699E-03 6.66667E-03
 -1       366 8.95671E-02-8.09699E-03 1.33333E-02
 -1       367 9.76777E-02-2.67767E-03 6.66667E-03
 -1       368 9.76777E-02-2.67767E-03 1.33333E-02
 -1       369 1.03097E-01 5.43292E-03 6.66667E-03
 -1       370 1.03097E-01 5.43292E-03 1.33333E-02
 -1       371 8.76537E-02-3.47759E-03 0.00000E+00
 -1       372 9.41421E-02 8.57864E-04 0.00000E+00
 -1       373 9.84776E-02 7.34633E-03 0.00000E+00
 -1       374 8.76537E-02-3.47759E-03 2.00000E-02
 -1       375 9.41421E-02 8.57864E-04 2.00000E-02
 -1       376 9.84776E-02 7.34633E-03 2.00000E-02
 -1       377 8.00000E-02-5.00000E-03 6.66667E-03
 -1       378 8.00000E-02-5.00000E-03 1.33333E-02
 -1       379 6.00000E-02 1.50000E-02 6.66667E-03
 -1       380 6.00000E-02 1.50000E-02 1.33333E-02
 -1       381 6.13275E-02 7.56160E-03 2.00000E-02
 -1       382 6.43156E-02-6.69245E-04 2.00000E-02
 -1       383 7.25605E-02-3.63186E-03 2.00000E-02
 -1       384 6.13275E-02 7.56160E-03 0.00000E+00
 -1       385 6.43156E-02-6.69245E-04 0.00000E+00
 -1       386 7.25605E-02-3.63186E-03 0.00000E+00
 -1       387 6.61418E-02 9.25975E-03 6.66667E-03
 -1       388 6.93934E-02 4.39340E-03 6.66667E-03
 -1       389 6.61418E-02 9.25975E-03 1.33333E-02
 -1       390 6.93934E-02 4.39340E-03 1.33333E-02
 -1       391 7.42598E-02 1.14181E-03 6.66667E-03
 -1       392 7.42598E-02 1.14181E-03 1.33333E-02
 -1       393 6.33333E-02-1.00000E-02 6.66667E-03
 -1       394 6.33333E-02-1.00000E-02 1.33333E-02
 -1       395 7.16667E-02-1.00000E-02 6.66667E-03
 -1       396 7.16667E-02-1.00000E-02 1.33333E-02
 -1       397 6.13275E-02 2.24384E-02 2.00000E-02
 -1       398 6.43156E-02 3.06692E-02 2.00000E-02
 -1       399 7.25605E-02 3.36319E-02 2.00000E-02
 -1       400 6.13275E-02 2.24384E-02 0.00000E+00
 -1       401 6.43156E-02 3.06692E-02 0.00000E+00
 -1       402 7.25605E-02 3.36319E-02 0.00000E+00
 -1       403 6.61418E-02 2.07403E-02 6.66667E-03
 -1       404 6.61418E-02 2.07403E-02 1.33333E-02
 -1       405 6.93934E-02 2.56066E-02 6.66667E-03
 -1       406 6.93934E-02 2.56066E-02 1.33333E-02
 -1       407 7.42598E-02 2.88582E-02 6.66667E-03
 -1       408 7.42598E-02 2.88582E-02 1.33333E-02
 -1       409 6.33333E-02 4.00000E-02 1.33333E-02
 -1       410 6.33333E-02 4.00000E-02 6.66667E-03
 -1       411 7.16667E-02 4.00000E-02 6.66667E-03
 -1       412 7.16667E-02 4.00000E-02 1.33333E-02
 -1       413 4.81818E-02 2.33333E-02 6.66667E-03
 -1       414 4.81818E-02 2.33333E-02 1.33333E-02
 -1       415 4.13636E-02 2.33333E-02 6.66667E-03
 -1       416 4.13636E-02 2.33333E-02 1.33333E-02
 -1       417 3.45455E-02 2.33333E-02 6.66667E-03
 -1       418 3.45455E-02 2.33333E-02 1.33333E-02
 -1       419 2.77273E-02 2.33333E-02 6.66667E-03
 -1       420 2.77273E-02 2.33333E-02 1.33333E-02
 -1       421 2.09091E-02 2.33333E-02 6.66667E-03
 -1       422 2.09091E-02 2.33333E-02 1.33333E-02
 -1       423 1.40909E-02 2.33333E-02 6.66667E-03
 -1       424 1.40909E-02 2.33333E-02 1.33333E-02
 -1       425 7.27273E-03 2.33333E-02 6.66667E-03
 -1       426 7.27273E-03 2.33333E-02 1.33333E-02
 -1       427 4.54545E-04 2.33333E-02 6.66667E-03
 -1       428 4.54545E-04 2.33333E-02 1.33333E-02
 -1       429-6.36364E-03 2.33333E-02 6.66667E-03
 -1       430-6.36364E-03 2.33333E-02 1.33333E-02
 -1       431-1.31818E-02 2.33333E-02 6.66667E-03
 -1       432-1.31818E-02 2.33333E-02 1.33333E-02
 -1       433 4.81818E-02 3.16667E-02 6.66667E-03
 -1       434 4.81818E-02 3.16667E-02 1.33333E-02
 -1       435 4.13636E-02 3.16667E-02 6.66667E-03
 -1       436 4.13636E-02 3.16667E-02 1.33333E-02
 -1       437 3.45455E-02 3.16667E-02 6.66667E-03
 -1       438 3.45455E-02 3.16667E-02 1.33333E-02
 -1       439 2.77273E-02 3.16667E-02 6.66667E-03
 -1       440 2.77273E-02 3.16667E-02 1.33333E-02
 -1       441 2.09091E-02 3.16667E-02 6.66667E-03
 -1       442 2.09091E-02 3.16667E-02 1.33333E-02
 -1       443 1.40909E-02 3.16667E-02 6.66667E-03
 -1       444 1.40909E-02 3.16667E-02 1.33333E-02
 -1       445 7.27273E-03 3.16667E-02 6.66667E-03
 -1       446 7.27273E-03 3.16667E-02 1.33333E-02
 -1       447 4.54545E-04 3.16667E-02 6.66667E-03
 -1       448 4.54545E-04 3.16667E-02 1.33333E-02
 -1       449-6.36364E-03 3.16667E-02 6.66667E-03
 -1       450-6.36364E-03 3.16667E-02 1.33333E-02
 -1       451-1.31818E-02 3.16667E-02 6.66667E-03
 -1       452-1.31818E-02 3.16667E-02 1.33333E-02
 -1       453 4.81818E-02 6.66667E-03 6.66667E-03
 -1       454 4.81818E-02 6.66667E-03 1.33333E-02
 -1       455 4.13636E-02 6.66667E-03 6.66667E-03
 -1       456 4.13636E-02 6.66667E-03 1.33333E-02
 -1       457 3.45455E-02 6.66667E-03 6.66667E-03
 -1       458 3.45455E-02 6.66667E-03 1.33333E-02
 -1       459 2.77273E-02 6.66667E-03 6.66667E-03
 -1       460 2.77273E-02 6.66667E-03 1.33333E-02
 -1       461 2.09091E-02 6.66667E-03 6.66667E-03
 -1       462 2.09091E-02 6.66667E-03 1.33333E-02
 -1       463 1.40909E-02 6.66667E-03 6.66667E-03
 -1       464 1.40909E-02 6.66667E-03 1.33333E-02
 -1       465 7.27273E-03 6.66667E-03 6.66667E-03
 -1       466 7.27273E-03 6.66667E-03 1.33333E-02
 -1       467 4.54545E-04 6.66667E-03 6.66667E-03
 -1       468 4.54545E-04 6.66667E-03 1.33333E-02
 -1       469-6.36364E-03 6.66667E-03 6.66667E-03
 -1       470-6.36364E-03 6.66667E-03 1.33333E-02
 -1       471-1.31818E-02 6.66667E-03 6.66667E-03
 -1       472-1.31818E-02 6.66667E-03 1.33333E-02
 -1       473 4.81818E-02-1.66667E-03 6.66667E-03
 -1       474 4.81818E-02-1.66667E-03 1.33333E-02
 -1       475 4.13636E-02-1.66667E-03 6.66667E-03
 -1       476 4.13636E-02-1.66667E-03 1.33333E-02
 -1       477 3.45455E-02-1.66667E-03 6.66667E-03
 -1       478 3.45455E-02-1.66667E-03 1.33333E-02
 -1       479 2.77273E-02-1.66667E-03 6.66667E-03
 -1       480 2.77273E-02-1.66667E-03 1.33333E-02
 -1       481 2.09091E-02-1.66667E-03 6.66667E-03
 -1       482 2.09091E-02-1.66667E-03 1.33333E-02
 -1       483 1.40909E-02-1.66667E-03 6.66667E-03
 -1       484 1.40909E-02-1.66667E-03 1.33333E-02
 -1       485 7.27273E-03-1.66667E-03 6.66667E-03
 -1       486 7.27273E-03-1.66667E-03 1.33333E-02
 -1       487 4.54545E-04-1.66667E-03 6.66667E-03
 -1       488 4.54545E-04-1.66667E-03 1.33333E-02
 -1       489-6.36364E-03-1.66667E-03 6.66667E-03
 -1       490-6.36364E-03-1.66667E-03 1.33333E-02
 -1       491-1.31818E-02-1.66667E-03 6.66667E-03
 -1       492-1.31818E-02-1.66667E-03 1.33333E-02
 -1       493 8.76537E-02 3.34776E-02 1.33333E-02
 -1       494 8.76537E-02 3.34776E-02 6.66667E-03
 -1       495 9.41421E-02 2.91421E-02 1.33333E-02
 -1       496 9.41421E-02 2.91421E-02 6.66667E-03
 -1       497 9.84776E-02 2.26537E-02 1.33333E-02
 -1       498 9.84776E-02 2.26537E-02 6.66667E-03
 -1       499 8.76537E-02-3.47759E-03 6.66667E-03
 -1       500 8.76537E-02-3.47759E-03 1.33333E-02
 -1       501 9.41421E-02 8.57864E-04 6.66667E-03
 -1       502 9.41421E-02 8.57864E-04 1.33333E-02
 -1       503 9.84776E-02 7.34633E-03 6.66667E-03
 -1       504 9.84776E-02 7.34633E-03 1.33333E-02
 -1       505 6.43101E-02-6.86270E-04 6.66667E-03
 -1       506 6.43208E-02-6.75205E-04 1.33333E-02
 -1       507 6.13563E-02 7.55619E-03 6.66667E-03
 -1       508 7.25553E-02-3.63490E-03 6.66667E-03
 -1       509 6.13577E-02 7.56150E-03 1.33333E-02
 -1       510 7.25605E-02-3.63336E-03 1.33333E-02
 -1       511 6.43101E-02 3.06863E-02 1.33333E-02
 -1       512 6.13563E-02 2.24438E-02 1.33333E-02
 -1       513 6.43208E-02 3.06752E-02 6.66667E-03
 -1       514 7.25553E-02 3.36349E-02 1.33333E-02
 -1       515 6.13577E-02 2.24385E-02 6.66667E-03
 -1       516 7.25605E-02 3.36334E-02 6.66667E-03
 -1       517 5.15909E-02 2.33333E-02 0.00000E+00
 -1       518 4.81818E-02 2.33333E-02 3.33333E-03
 -1       519 5.15909E-02 2.33333E-02 6.66667E-03
 -1       520 5.50000E-02 2.33333E-02 3.33333E-03
 -1       521 5.50000E-02 1.50000E-02 3.33333E-03
 -1       522 5.15909E-02 1.50000E-02 6.66667E-03
 -1       523 4.81818E-02 1.50000E-02 3.33333E-03
 -1       524 5.15909E-02 1.50000E-02 0.00000E+00
 -1       525 5.50000E-02 1.91667E-02 6.66667E-03
 -1       526 5.50000E-02 1.91667E-02 0.00000E+00
 -1       527 4.81818E-02 1.91667E-02 6.66667E-03
 -1       528 4.81818E-02 1.91667E-02 0.00000E+00
 -1       529 4.81818E-02 2.33333E-02 1.00000E-02
 -1       530 5.15909E-02 2.33333E-02 1.33333E-02
 -1       531 5.50000E-02 2.33333E-02 1.00000E-02
 -1       532 5.50000E-02 1.50000E-02 1.00000E-02
 -1       533 5.15909E-02 1.50000E-02 1.33333E-02
 -1       534 4.81818E-02 1.50000E-02 1.00000E-02
 -1       535 5.50000E-02 1.91667E-02 1.33333E-02
 -1       536 4.81818E-02 1.91667E-02 1.33333E-02
 -1       537 4.81818E-02 2.33333E-02 1.66667E-02
 -1       538 5.15909E-02 2.33333E-02 2.00000E-02
 -1       539 5.50000E-02 2.33333E-02 1.66667E-02
 -1       540 5.50000E-02 1.50000E-02 1.66667E-02
 -1       541 5.15909E-02 1.50000E-02 2.00000E-02
 -1       542 4.81818E-02 1.50000E-02 1.66667E-02
 -1       543 5.50000E-02 1.91667E-02 2.00000E-02
 -1       544 4.81818E-02 1.91667E-02 2.00000E-02
 -1       545 4.47727E-02 2.33333E-02 0.00000E+00
 -1       546 4.13636E-02 2.33333E-02 3.33333E-03
 -1       547 4.47727E-02 2.33333E-02 6.66667E-03
 -1       548 4.47727E-02 1.50000E-02 6.66667E-03
 -1       549 4.13636E-02 1.50000E-02 3.33333E-03
 -1       550 4.47727E-02 1.50000E-02 0.00000E+00
 -1       551 4.13636E-02 1.91667E-02 6.66667E-03
 -1       552 4.13636E-02 1.91667E-02 0.00000E+00
 -1       553 4.13636E-02 2.33333E-02 1.00000E-02
 -1       554 4.47727E-02 2.33333E-02 1.33333E-02
 -1       555 4.47727E-02 1.50000E-02 1.33333E-02
 -1       556 4.13636E-02 1.50000E-02 1.00000E-02
 -1       557 4.13636E-02 1.91667E-02 1.33333E-02
 -1       558 4.13636E-02 2.33333E-02 1.66667E-02
 -1       559 4.47727E-02 2.33333E-02 2.00000E-02
 -1       560 4.47727E-02 1.50000E-02 2.00000E-02
 -1       561 4.13636E-02 1.50000E-02 1.66667E-02
 -1       562 4.13636E-02 1.91667E-02 2.00000E-02
 -1       563 3.79545E-02 2.33333E-02 0.00000E+00
 -1       564 3.45455E-02 2.33333E-02 3.33333E-03
 -1       565 3.79545E-02 2.33333E-02 6.66667E-03
 -1       566 3.79545E-02 1.50000E-02 6.66667E-03
 -1       567 3.45455E-02 1.50000E-02 3.33333E-03
 -1       568 3.79545E-02 1.50000E-02 0.00000E+00
 -1       569 3.45455E-02 1.91667E-02 6.66667E-03
 -1       570 3.45455E-02 1.91667E-02 0.00000E+00
 -1       571 3.45455E-02 2.33333E-02 1.00000E-02
 -1       572 3.79545E-02 2.33333E-02 1.33333E-02
 -1       573 3.79545E-02 1.50000E-02 1.33333E-02
 -1       574 3.45455E-02 1.50000E-02 1.00000E-02
 -1       575 3.45455E-02 1.91667E-02 1.33333E-02
 -1       576 3.45455E-02 2.33333E-02 1.66667E-02
 -1       577 3.79545E-02 2.33333E-02 2.00000E-02
 -1       578 3.79545E-02 1.50000E-02 2.00000E-02
 -1       579 3.45455E-02 1.50000E-02 1.66667E-02
 -1       580 3.45455E-02 1.91667E-02 2.00000E-02
 -1       581 3.11364E-02 2.33333E-02 0.00000E+00
 -1       582 2.77273E-02 2.33333E-02 3.33333E-03
 -1       583 3.11364E-02 2.33333E-02 6.66667E-03
 -1       584 3.11364E-02 1.50000E-02 6.66667E-03
 -1       585 2.77273E-02 1.50000E-02 3.33333E-03
 -1       586 3.11364E-02 1.50000E-02 0.00000E+00
 -1       587 2.77273E-02 1.91667E-02 6.66667E-03
 -1       588 2.77273E-02 1.91667E-02 0.00000E+00